+ 0.003412 0 4 ack 56 ------- 0 0.245761 1.197632 0 0 0 0x02 40 0 
- 0.003412 0 4 ack 56 ------- 0 0.245761 1.197632 0 0 0 0x02 40 0 
r 0.003512 0 4 ack 56 ------- 0 0.245761 1.197632 0 0 0 0x02 40 0 
+ 0.562590 4 5 ack 56 ------- 0 0.245761 1.197632 0 0 0 0x02 40 0 
- 0.562590 4 5 ack 56 ------- 0 0.245761 1.197632 0 0 0 0x02 40 0 
r 0.562691 4 5 ack 56 ------- 0 0.245761 1.197632 0 0 0 0x02 40 0 
+ 0.562691 5 1 ack 56 ------- 0 0.245761 1.197632 0 0 0 0x02 40 0 
- 0.562691 5 1 ack 56 ------- 0 0.245761 1.197632 0 0 0 0x02 40 0 
r 0.562791 5 1 ack 56 ------- 0 0.245761 1.197632 0 0 0 0x02 40 0 
+ 0.562791 1 5 ack 56 ------- 0 1.197632 0.245761 0 1 1 0x12 40 0 
- 0.562791 1 5 ack 56 ------- 0 1.197632 0.245761 0 1 1 0x12 40 0 
r 0.562892 1 5 ack 56 ------- 0 1.197632 0.245761 0 1 1 0x12 40 0 
+ 1.121970 5 4 ack 56 ------- 0 1.197632 0.245761 0 1 1 0x12 40 0 
- 1.121970 5 4 ack 56 ------- 0 1.197632 0.245761 0 1 1 0x12 40 0 
r 1.122070 5 4 ack 56 ------- 0 1.197632 0.245761 0 1 1 0x12 40 0 
+ 1.122070 4 0 ack 56 ------- 0 1.197632 0.245761 0 1 1 0x12 40 0 
- 1.122070 4 0 ack 56 ------- 0 1.197632 0.245761 0 1 1 0x12 40 0 
r 1.122171 4 0 ack 56 ------- 0 1.197632 0.245761 0 1 1 0x12 40 0 
+ 1.122171 0 4 ack 52 ------- 0 0.245761 1.197632 1 2 1 0x10 40 0 
- 1.122171 0 4 ack 52 ------- 0 0.245761 1.197632 1 2 1 0x10 40 0 
+ 1.122171 0 4 ack 305 ------- 0 0.245761 1.197632 1 3 1 0x10 40 0 
- 1.122171 0 4 ack 305 ------- 0 0.245761 1.197632 1 3 1 0x10 40 0 
r 1.122271 0 4 ack 52 ------- 0 0.245761 1.197632 1 2 1 0x10 40 0 
r 1.122274 0 4 ack 305 ------- 0 0.245761 1.197632 1 3 1 0x10 40 0 
+ 1.681349 4 5 ack 52 ------- 0 0.245761 1.197632 1 2 1 0x10 40 0 
- 1.681349 4 5 ack 52 ------- 0 0.245761 1.197632 1 2 1 0x10 40 0 
+ 1.681352 4 5 ack 305 ------- 0 0.245761 1.197632 1 3 1 0x10 40 0 
- 1.681352 4 5 ack 305 ------- 0 0.245761 1.197632 1 3 1 0x10 40 0 
r 1.681450 4 5 ack 52 ------- 0 0.245761 1.197632 1 2 1 0x10 40 0 
+ 1.681450 5 1 ack 52 ------- 0 0.245761 1.197632 1 2 1 0x10 40 0 
- 1.681450 5 1 ack 52 ------- 0 0.245761 1.197632 1 2 1 0x10 40 0 
r 1.681454 4 5 ack 305 ------- 0 0.245761 1.197632 1 3 1 0x10 40 0 
+ 1.681454 5 1 ack 305 ------- 0 0.245761 1.197632 1 3 1 0x10 40 0 
- 1.681454 5 1 ack 305 ------- 0 0.245761 1.197632 1 3 1 0x10 40 0 
r 1.681550 5 1 ack 52 ------- 0 0.245761 1.197632 1 2 1 0x10 40 0 
r 1.681557 5 1 ack 305 ------- 0 0.245761 1.197632 1 3 1 0x10 40 0 
+ 1.681557 1 5 ack 52 ------- 0 1.197632 0.245761 1 4 254 0x10 40 0 
- 1.681557 1 5 ack 52 ------- 0 1.197632 0.245761 1 4 254 0x10 40 0 
r 1.681657 1 5 ack 52 ------- 0 1.197632 0.245761 1 4 254 0x10 40 0 
+ 1.805250 1 5 ack 562 ------- 0 1.197632 0.245761 1 6 254 0x10 40 0 
- 1.805250 1 5 ack 562 ------- 0 1.197632 0.245761 1 6 254 0x10 40 0 
r 1.805354 1 5 ack 562 ------- 0 1.197632 0.245761 1 6 254 0x10 40 0 
+ 2.240735 5 4 ack 52 ------- 0 1.197632 0.245761 1 4 254 0x10 40 0 
- 2.240735 5 4 ack 52 ------- 0 1.197632 0.245761 1 4 254 0x10 40 0 
r 2.240835 5 4 ack 52 ------- 0 1.197632 0.245761 1 4 254 0x10 40 0 
+ 2.240835 4 0 ack 52 ------- 0 1.197632 0.245761 1 4 254 0x10 40 0 
- 2.240835 4 0 ack 52 ------- 0 1.197632 0.245761 1 4 254 0x10 40 0 
r 2.240936 4 0 ack 52 ------- 0 1.197632 0.245761 1 4 254 0x10 40 0 
+ 2.364432 5 4 ack 562 ------- 0 1.197632 0.245761 1 6 254 0x10 40 0 
- 2.364432 5 4 ack 562 ------- 0 1.197632 0.245761 1 6 254 0x10 40 0 
r 2.364537 5 4 ack 562 ------- 0 1.197632 0.245761 1 6 254 0x10 40 0 
+ 2.364537 4 0 ack 562 ------- 0 1.197632 0.245761 1 6 254 0x10 40 0 
- 2.364537 4 0 ack 562 ------- 0 1.197632 0.245761 1 6 254 0x10 40 0 
r 2.364641 4 0 ack 562 ------- 0 1.197632 0.245761 1 6 254 0x10 40 0 
+ 2.564641 0 4 ack 52 ------- 0 0.245761 1.197632 254 8 511 0x10 40 0 
- 2.564641 0 4 ack 52 ------- 0 0.245761 1.197632 254 8 511 0x10 40 0 
r 2.564742 0 4 ack 52 ------- 0 0.245761 1.197632 254 8 511 0x10 40 0 
+ 3.123820 4 5 ack 52 ------- 0 0.245761 1.197632 254 8 511 0x10 40 0 
- 3.123820 4 5 ack 52 ------- 0 0.245761 1.197632 254 8 511 0x10 40 0 
r 3.123920 4 5 ack 52 ------- 0 0.245761 1.197632 254 8 511 0x10 40 0 
+ 3.123920 5 1 ack 52 ------- 0 0.245761 1.197632 254 8 511 0x10 40 0 
- 3.123920 5 1 ack 52 ------- 0 0.245761 1.197632 254 8 511 0x10 40 0 
r 3.124020 5 1 ack 52 ------- 0 0.245761 1.197632 254 8 511 0x10 40 0 
+ 8.113747 1 5 ack 52 ------- 0 1.197632 0.245761 511 9 254 0x11 40 0 
- 8.113747 1 5 ack 52 ------- 0 1.197632 0.245761 511 9 254 0x11 40 0 
r 8.113847 1 5 ack 52 ------- 0 1.197632 0.245761 511 9 254 0x11 40 0 
+ 8.672925 5 4 ack 52 ------- 0 1.197632 0.245761 511 9 254 0x11 40 0 
- 8.672925 5 4 ack 52 ------- 0 1.197632 0.245761 511 9 254 0x11 40 0 
r 8.673025 5 4 ack 52 ------- 0 1.197632 0.245761 511 9 254 0x11 40 0 
+ 8.673025 4 0 ack 52 ------- 0 1.197632 0.245761 511 9 254 0x11 40 0 
- 8.673025 4 0 ack 52 ------- 0 1.197632 0.245761 511 9 254 0x11 40 0 
r 8.673126 4 0 ack 52 ------- 0 1.197632 0.245761 511 9 254 0x11 40 0 
+ 8.673126 0 4 ack 52 ------- 0 0.245761 1.197632 254 10 512 0x11 40 0 
- 8.673126 0 4 ack 52 ------- 0 0.245761 1.197632 254 10 512 0x11 40 0 
+ 8.673126 0 4 ack 52 ------- 0 0.245761 1.197632 255 11 512 0x10 40 0 
- 8.673126 0 4 ack 52 ------- 0 0.245761 1.197632 255 11 512 0x10 40 0 
r 8.673226 0 4 ack 52 ------- 0 0.245761 1.197632 254 10 512 0x11 40 0 
r 8.673227 0 4 ack 52 ------- 0 0.245761 1.197632 255 11 512 0x10 40 0 
+ 9.113747 1 5 ack 52 ------- 0 1.197632 0.245761 511 12 254 0x11 40 0 
- 9.113747 1 5 ack 52 ------- 0 1.197632 0.245761 511 12 254 0x11 40 0 
r 9.113847 1 5 ack 52 ------- 0 1.197632 0.245761 511 12 254 0x11 40 0 
+ 9.113847 5 4 ack 52 ------- 0 1.197632 0.245761 511 12 254 0x11 40 0 
- 9.113847 5 4 ack 52 ------- 0 1.197632 0.245761 511 12 254 0x11 40 0 
r 9.113947 5 4 ack 52 ------- 0 1.197632 0.245761 511 12 254 0x11 40 0 
+ 9.113947 4 0 ack 52 ------- 0 1.197632 0.245761 511 12 254 0x11 40 0 
- 9.113947 4 0 ack 52 ------- 0 1.197632 0.245761 511 12 254 0x11 40 0 
r 9.114048 4 0 ack 52 ------- 0 1.197632 0.245761 511 12 254 0x11 40 0 
+ 9.232304 4 5 ack 52 ------- 0 0.245761 1.197632 254 10 512 0x11 40 0 
- 9.232304 4 5 ack 52 ------- 0 0.245761 1.197632 254 10 512 0x11 40 0 
r 9.232405 4 5 ack 52 ------- 0 0.245761 1.197632 254 10 512 0x11 40 0 
+ 9.232405 5 1 ack 52 ------- 0 0.245761 1.197632 254 10 512 0x11 40 0 
- 9.232405 5 1 ack 52 ------- 0 0.245761 1.197632 254 10 512 0x11 40 0 
r 9.232505 5 1 ack 52 ------- 0 0.245761 1.197632 254 10 512 0x11 40 0 
+ 9.232505 1 5 ack 52 ------- 0 1.197632 0.245761 512 13 255 0x10 40 0 
- 9.232505 1 5 ack 52 ------- 0 1.197632 0.245761 512 13 255 0x10 40 0 
r 9.232606 1 5 ack 52 ------- 0 1.197632 0.245761 512 13 255 0x10 40 0 
+ 9.232606 5 4 ack 52 ------- 0 1.197632 0.245761 512 13 255 0x10 40 0 
- 9.232606 5 4 ack 52 ------- 0 1.197632 0.245761 512 13 255 0x10 40 0 
r 9.232706 5 4 ack 52 ------- 0 1.197632 0.245761 512 13 255 0x10 40 0 
+ 9.232706 4 0 ack 52 ------- 0 1.197632 0.245761 512 13 255 0x10 40 0 
- 9.232706 4 0 ack 52 ------- 0 1.197632 0.245761 512 13 255 0x10 40 0 
r 9.232806 4 0 ack 52 ------- 0 1.197632 0.245761 512 13 255 0x10 40 0 
+ 9.232806 0 4 ack 40 ------- 0 0.245761 1.197632 255 14 0 0x04 40 0 
- 9.232806 0 4 ack 40 ------- 0 0.245761 1.197632 255 14 0 0x04 40 0 
r 9.232907 0 4 ack 40 ------- 0 0.245761 1.197632 255 14 0 0x04 40 0 
+ 9.232907 4 5 ack 40 ------- 0 0.245761 1.197632 255 14 0 0x04 40 0 
- 9.232907 4 5 ack 40 ------- 0 0.245761 1.197632 255 14 0 0x04 40 0 
r 9.233007 4 5 ack 40 ------- 0 0.245761 1.197632 255 14 0 0x04 40 0 
+ 9.233007 5 1 ack 40 ------- 0 0.245761 1.197632 255 14 0 0x04 40 0 
- 9.233007 5 1 ack 40 ------- 0 0.245761 1.197632 255 14 0 0x04 40 0 
r 9.233107 5 1 ack 40 ------- 0 0.245761 1.197632 255 14 0 0x04 40 0 
